# vtk DataFile Version 4.2
vtk output
ASCII
DATASET STRUCTURED_POINTS
DIMENSIONS 253 253 1
SPACING 0.0833333 0.0833333 1
ORIGIN 75 5 0
POINT_DATA 64009
FIELD FieldData 1
zos 1 64009 double
0.54902798496 0.55055391043 0.55177465081 0.5526902061 0.55330057628 0.55360576138 0.55360576138 0.55330057628 0.5526902061
0.55207983591 0.55116428062 0.55055391043 0.54994354025 0.54963835515 0.54933317006 0.54902798496 0.54902798496 0.54872279987
0.54872279987 0.54841761477 0.54750205949 0.54658650421 0.54506057873 0.54322946817 0.54109317251 0.53926206194 0.53773613647
0.53621021099 0.53498947062 0.53376873024 0.53285317495 0.53193761967 0.53102206439 0.5304116942 0.52980132401 0.52919095382
0.52858058363 0.52827539854 0.52797021344 0.52797021344 0.52766502835 0.52797021344 0.52888576873 0.5301065091 0.53193761967
0.53346354514 0.53529465571 0.53743095137 0.53956724703 0.54170354269 0.54383983836 0.54597613402 0.54841761477 0.55085909553
0.55360576138 0.55635242723 0.55940427817 0.56306649931 0.56703390554 0.57130649686 0.57557908818 0.5798516795 0.58412427083
0.58748130687 0.59053315781 0.59327982366 0.59572130442 0.59816278517 0.60060426593 0.60304574668 0.60548722744 0.60823389329
0.61128574423 0.61403241009 0.61677907594 0.61922055669 0.62166203745 0.62379833311 0.62685018405 0.629902035 0.63264870085
0.6353953667 0.63814203255 0.64119388349 0.64394054934 0.6463820301 0.64851832576 0.65004425123 0.65157017671 0.65218054689
0.65279091708 0.65309610218 0.65340128727 0.65340128727 0.65370647237 0.65370647237 0.65401165746 0.65401165746 0.65370647237
0.65340128727 0.65279091708 0.6518753618 0.65095980652 0.65004425123 0.64882351086 0.64790795557 0.64668721519 0.64577165991
0.64394054934 0.64210943878 0.63997314312 0.63814203255 0.63600573689 0.63478499651 0.63386944123 0.63356425613 0.63356425613
0.63447981142 0.63600573689 0.63753166236 0.63936277293 0.6408886984 0.64241462387 0.64394054934 0.64577165991 0.64760277048
0.64943388104 0.6518753618 0.65401165746 0.65645313822 0.65889461897 0.66133609973 0.66347239539 0.66591387615 0.6683553569
0.67079683766 0.67323831841 0.67629016936 0.6793420203 0.68239387125 0.6851405371 0.68391979672 0.68666646257 0.68971831352
0.69246497937 0.69460127503 0.69643238559 0.69765312597 0.69826349616 0.69978942163 0.70345164277 0.70802941918 0.71138645522
0.71382793598 0.71474349126 0.71474349126 0.71382793598 0.71199682541 0.70925015956 0.70619830862 0.70284127258 0.69887386635
0.69460127503 0.68941312842 0.68361461163 0.67720572464 0.67018646747 0.66255684011 0.65462202765 0.64729758538 0.6408886984
0.6353953667 0.63051240519 0.62623981386 0.62318796292 0.62105166726 0.61983092688 0.61952574179 0.61983092688 0.62044129707
0.62074648216 0.62074648216 0.62013611197 0.61952574179 0.61830500141 0.61708426103 0.61525315046 0.6134220399 0.61189611442
0.61128574423 0.61159092933 0.61098055914 0.60914944857 0.60548722744 0.60121463612 0.59724722989 0.59541611932 0.59572130442
0.59785760008 0.59999389574 0.6021301914 0.60365611687 0.60518204235 0.60670796782 0.60823389329 0.61006500386 0.61189611442
0.6134220399 0.61525315046 0.61769463122 0.61983092688 0.62227240764 0.62379833311 0.6244087033 0.62471388839 0.6241035182
0.62288277782 0.62166203745 0.62013611197 0.6189153716 0.61799981631 0.61708426103 0.61586352065 0.61464278027 0.6131168548
0.61189611442 0.61037018895 0.60914944857 0.6079287082 0.60670796782 0.60518204235 0.60335093178 0.60121463612 0.59907834046
0.59633167461 0.59297463857 0.58961760253 0.5856501963 0.58168279007 0.57802056894 0.5746635329 0.57069612667 0.56581316516
0.56123538874 0.55940427817 0.5578783527 -9.9999999907 -9.9999999907 -9.9999999907 -9.9999999907 -9.9999999907 -9.9999999907
-9.9999999907 0.54628131911 0.54780724458 0.54902798496 0.55024872534 0.55085909553 0.55116428062 0.55116428062 0.55085909553
0.55024872534 0.54963835515 0.54872279987 0.54780724458 0.5471968744 0.54658650421 0.54628131911 0.54597613402 0.54567094892
0.54567094892 0.54567094892 0.54536576383 0.54475539364 0.54353465326 0.54200872779 0.54017761722 0.53804132156 0.5359050259
0.53407391533 0.53224280477 0.53071687929 0.52949613892 0.52827539854 0.52735984325 0.52644428797 0.52583391778 0.52522354759
0.5246131774 0.52430799231 0.52430799231 0.52400280721 0.52400280721 0.52400280721 0.5246131774 0.52552873269 0.52705465816
0.52858058363 0.5304116942 0.53224280477 0.53437910043 0.53651539609 0.53865169175 0.54109317251 0.54322946817 0.54536576383
0.54780724458 0.55024872534 0.5526902061 0.55574205704 0.55848872289 0.56184575893 0.56581316516 0.56978057139 0.57405316271
0.57802056894 0.58259834535 0.58626056649 0.58931241743 0.59205908328 0.59450056404 0.5966368597 0.59907834046 0.60182500631
0.60457167216 0.60731833801 0.61067537405 0.61372722499 0.61677907594 0.61952574179 0.62227240764 0.62471388839 0.62776573934
0.63112277538 0.63447981142 0.63783684745 0.64119388349 0.64455091953 0.64790795557 0.65065462142 0.65309610218 0.65523239784
0.65675832331 0.6576738786 0.65858943388 0.65889461897 0.65950498916 0.65981017426 0.66011535935 0.66042054445 0.66072572954
0.66103091463 0.66103091463 0.66072572954 0.66042054445 0.65981017426 0.65919980407 0.65828424878 0.6573686935 0.65645313822
0.65523239784 0.65370647237 0.65157017671 0.64912869595 0.64577165991 0.64241462387 0.63966795802 0.63814203255 0.63753166236
0.63814203255 0.63936277293 0.64149906859 0.64363536425 0.64607684501 0.64821314067 0.65004425123 0.6518753618 0.65401165746
0.65584276803 0.65797906369 0.65981017426 0.66194646992 0.66408276558 0.66591387615 0.66774498671 0.66927091219 0.67079683766
0.67262794822 0.6741538737 0.67598498426 0.67781609483 0.68025757559 0.68330942653 0.68666646257 0.68849757314 0.68727683276
0.6903286837 0.69368571974 0.69643238559 0.69856868125 0.69978942163 0.70070497692 0.70253608748 0.70650349371 0.71138645522
0.71504867636 0.71749015711 0.71871089749 0.71901608258 0.7184057124 0.71687978692 0.71413312107 0.71138645522 0.70802941918
0.70436719805 0.69978942163 0.69490646012 0.68941312842 0.68330942653 0.67659535445 0.66927091219 0.66164128482 0.65370647237
0.64668721519 0.6408886984 0.63570055179 0.63142796047 0.62807092443 0.62562944368 0.62349314801 0.62196722254 0.62105166726
0.62105166726 0.62105166726 0.62105166726 0.62074648216 0.62013611197 0.6189153716 0.61769463122 0.61586352065 0.61372722499
0.61189611442 0.61189611442 0.61250648461 0.61220129952 0.61037018895 0.60701315291 0.60274056159 0.59877315536 0.59633167461
0.59572130442 0.5966368597 0.59816278517 0.59999389574 0.60151982121 0.60335093178 0.60487685725 0.60701315291 0.60914944857
0.61128574423 0.6134220399 0.61555833556 0.61799981631 0.62074648216 0.62288277782 0.62471388839 0.62562944368 0.62562944368
0.62501907349 0.6241035182 0.62257759273 0.62135685235 0.62013611197 0.6189153716 0.61799981631 0.61677907594 0.61525315046
0.61372722499 0.61220129952 0.61067537405 0.60945463367 0.6079287082 0.60640278272 0.60487685725 0.60304574668 0.60090945102
0.59816278517 0.59541611932 0.59205908328 0.58870204724 0.58473464102 0.58107241988 0.57741019875 0.57374797761 0.56947538629
0.56428723969 0.56184575893 0.56001464836 -9.9999999907 -9.9999999907 -9.9999999907 -9.9999999907 -9.9999999907 -9.9999999907
-9.9999999907 -9.9999999907 0.54292428307 0.54445020854 0.54567094892 0.5468916893 0.54750205949 0.54780724458 0.54780724458
0.54750205949 0.5468916893 0.54628131911 0.54536576383 0.54445020854 0.54353465326 0.54292428307 0.54261909798 0.54231391288
0.54200872779 0.54200872779 0.54200872779 0.54170354269 0.54109317251 0.54017761722 0.53865169175 0.53651539609 0.53437910043
0.53224280477 0.5304116942 0.52858058363 0.52674947307 0.52522354759 0.52369762212 0.52247688174 0.52156132646 0.52095095627
0.52034058608 0.52034058608 0.52003540099 0.52034058608 0.52034058608 0.52034058608 0.52064577118 0.52095095627 0.52217169665
0.52400280721 0.52583391778 0.52735984325 0.52919095382 0.53102206439 0.53315836005 0.5355998408 0.53773613647 0.53987243213
0.54200872779 0.54414502345 0.54658650421 0.54872279987 0.55146946572 0.55421613157 0.55726798251 0.56031983346 0.56398205459
0.56764427572 0.57161168195 0.57557908818 0.5798516795 0.58412427083 0.58748130687 0.59022797272 0.59266945347 0.59480574913
0.59724722989 0.59999389574 0.60304574668 0.60609759763 0.60945463367 0.61281166971 0.61616870575 0.61922055669 0.62227240764
0.62532425858 0.62868129462 0.63234351575 0.63631092198 0.63997314312 0.64363536425 0.64790795557 0.6518753618 0.65523239784
0.65797906369 0.66011535935 0.66225165501 0.66347239539 0.66438795067 0.66499832086 0.66560869105 0.66621906124 0.66682943143
0.66743980162 0.66774498671 0.66805017181 0.66805017181 0.66805017181 0.66805017181 0.66774498671 0.66743980162 0.66713461652
0.66652424634 0.66560869105 0.66438795067 0.6628620252 0.66072572954 0.6576738786 0.65401165746 0.65004425123 0.6463820301
0.64424573444 0.64302499406 0.64394054934 0.64577165991 0.64851832576 0.65126499161 0.65401165746 0.65645313822 0.65858943388
0.66072572954 0.66255684011 0.66469313577 0.66652424634 0.668660542 0.67049165256 0.67201757804 0.67354350351 0.67506942898
0.67629016936 0.67720572464 0.67842646502 0.6796472054 0.68086794578 0.68269905634 0.684835352 0.68727683276 0.68941312842
0.69124423899 0.69124423899 0.69429608993 0.69734794088 0.70009460673 0.70192571729 0.70314645767 0.70467238314 0.70894497447
0.71443830617 0.7184057124 0.72084719315 0.72237311862 0.72298348881 0.72237311862 0.72115237825 0.71901608258 0.71626941673
0.71321756579 0.70955534466 0.70528275333 0.70039979182 0.69521164522 0.68910794333 0.68300424144 0.67598498426 0.668660542
0.66103091463 0.65370647237 0.64668721519 0.64119388349 0.63661610708 0.63295388594 0.629902035 0.62776573934 0.62562944368
0.62379833311 0.62257759273 0.62196722254 0.62166203745 0.62135685235 0.62074648216 0.61952574179 0.61799981631 0.61616870575
0.61403241009 0.6131168548 0.6134220399 0.61464278027 0.61433759518 0.61220129952 0.60884426348 0.60487685725 0.60151982121
0.59907834046 0.59816278517 0.59785760008 0.59846797027 0.59907834046 0.60029908083 0.60151982121 0.60335093178 0.60579241253
0.60823389329 0.61067537405 0.6131168548 0.61555833556 0.61830500141 0.62135685235 0.62379833311 0.62532425858 0.62623981386
0.62654499896 0.62593462877 0.62501907349 0.62349314801 0.62227240764 0.62105166726 0.62013611197 0.6189153716 0.61769463122
0.61586352065 0.61403241009 0.61250648461 0.61098055914 0.60945463367 0.6079287082 0.60640278272 0.60426648706 0.6024353765
0.59999389574 0.59724722989 0.59419537894 0.59083834291 0.58748130687 0.58381908573 0.58046204969 0.57679982856 0.57313760743
0.56794946082 0.56276131421 0.56184575893 0.56093020365 -9.9999999907 -9.9999999907 -9.9999999907 -9.9999999907 -9.9999999907
-9.9999999907 -9.9999999907 -9.9999999907 0.53865169175 0.53987243213 0.5413983576 0.54261909798 0.54322946817 0.54353465326
0.54353465326 0.54353465326 0.54292428307 0.54231391288 0.5413983576 0.54048280232 0.53956724703 0.53895687684 0.53865169175
0.53834650666 0.53804132156 0.53804132156 0.53773613647 0.53773613647 0.53712576628 0.53621021099 0.53468428552 0.53285317495
0.53071687929 0.52858058363 0.52674947307 0.5246131774 0.52278206684 0.52095095627 0.5194250308 0.51820429042 0.51728873514
0.51667836495 0.51637317985 0.51637317985 0.51637317985 0.51667836495 0.51667836495 0.51698355004 0.51728873514 0.51789910533
0.5194250308 0.52125614136 0.52278206684 0.5246131774 0.52613910288 0.52766502835 0.52949613892 0.53193761967 0.53407391533
0.53621021099 0.53834650666 0.54048280232 0.54231391288 0.54475539364 0.5471968744 0.54963835515 0.552385021 0.55543687195
0.55848872289 0.56184575893 0.56550798006 0.5688650161 0.57283242233 0.57679982856 0.58076723479 0.58473464102 0.58748130687
0.58992278762 0.59236426838 0.59480574913 0.59755241498 0.60029908083 0.60365611687 0.60731833801 0.61128574423 0.61494796537
0.61830500141 0.62166203745 0.62501907349 0.62898647971 0.63325907104 0.63783684745 0.64210943878 0.64668721519 0.65095980652
0.65523239784 0.65919980407 0.66255684011 0.66530350596 0.66743980162 0.66896572709 0.67049165256 0.67140720785 0.67201757804
0.67293313332 0.67354350351 0.6741538737 0.67476424389 0.67506942898 0.67537461407 0.67567979917 0.67598498426 0.67629016936
0.67629016936 0.67629016936 0.67598498426 0.67537461407 0.6741538737 0.67262794822 0.67049165256 0.66743980162 0.66377758048
0.65981017426 0.65584276803 0.65309610218 0.65157017671 0.6518753618 0.65309610218 0.65553758293 0.65828424878 0.66103091463
0.66347239539 0.66591387615 0.66805017181 0.66988128237 0.67171239294 0.67354350351 0.67537461407 0.67690053955 0.67812127993
0.67903683521 0.68025757559 0.68086794578 0.68178350106 0.68269905634 0.68361461163 0.6851405371 0.68666646257 0.68880275823
0.6906338688 0.69277016446 0.69521164522 0.6958220154 0.69765312597 0.70039979182 0.70345164277 0.70497756824 0.70619830862
0.71047089994 0.71657460183 0.72084719315 0.7238990441 0.72573015466 0.72634052485 0.72634052485 0.72542496957 0.72328867391
0.72084719315 0.71779534221 0.71443830617 0.71047089994 0.70589312352 0.70070497692 0.69521164522 0.68910794333 0.68300424144
0.67598498426 0.6683553569 0.66072572954 0.65340128727 0.64699240029 0.64149906859 0.63722647727 0.63417462632 0.63173314556
0.6295968499 0.62746055424 0.62562944368 0.6244087033 0.62318796292 0.62257759273 0.62135685235 0.62013611197 0.6186101865
0.61738944612 0.61647389084 0.61616870575 0.61708426103 0.61799981631 0.61708426103 0.61464278027 0.61098055914 0.60701315291
0.60457167216 0.60274056159 0.60151982121 0.60090945102 0.60029908083 0.59999389574 0.60029908083 0.60121463612 0.60274056159
0.60518204235 0.6079287082 0.61067537405 0.6131168548 0.61586352065 0.6189153716 0.62196722254 0.6244087033 0.62593462877
0.62685018405 0.62715536915 0.62654499896 0.62562944368 0.6244087033 0.62318796292 0.62196722254 0.62105166726 0.61983092688
0.61799981631 0.61616870575 0.61433759518 0.61250648461 0.61098055914 0.60945463367 0.6079287082 0.60579241253 0.60396130197
0.60151982121 0.59907834046 0.59602648951 0.59297463857 0.58961760253 0.58656575158 0.58320871554 0.5798516795 0.57618945837
0.57252723724 0.56733909063 0.56398205459 0.56276131421 -9.9999999907 -9.9999999907 -9.9999999907 -9.9999999907 -9.9999999907
-9.9999999907 -9.9999999907 -9.9999999907 -9.9999999907 0.53315836005 0.53437910043 0.5359050259 0.53712576628 0.53773613647
0.53834650666 0.53865169175 0.53865169175 0.53834650666 0.53773613647 0.53712576628 0.53621021099 0.53529465571 0.53437910043
0.53376873024 0.53346354514 0.53346354514 0.53315836005 0.53315836005 0.53285317495 0.53254798986 0.53163243458 0.5304116942
0.52888576873 0.52674947307 0.5246131774 0.52278206684 0.52064577118 0.51881466061 0.51698355004 0.51545762457 0.5139316991
0.51332132891 0.51301614381 0.51301614381 0.51301614381 0.51332132891 0.513626514 0.513626514 0.5139316991 0.51454206929
0.51515243948 0.51667836495 0.51820429042 0.51973021589 0.52125614136 0.52247688174 0.52400280721 0.52552873269 0.52766502835
0.52980132401 0.53224280477 0.53407391533 0.53621021099 0.53834650666 0.54048280232 0.54261909798 0.54506057873 0.54780724458
0.55085909553 0.55360576138 0.55665761232 0.55970946327 0.56276131421 0.56611835025 0.56947538629 0.57283242233 0.57649464346
0.5801568646 0.58351390064 0.58626056649 0.58870204724 0.59144871309 0.59419537894 0.59724722989 0.60060426593 0.60426648706
0.60853907838 0.61281166971 0.61677907594 0.62105166726 0.62501907349 0.62929166481 0.63417462632 0.63905758783 0.64424573444
0.64943388104 0.65462202765 0.65919980407 0.66347239539 0.66713461652 0.67018646747 0.67262794822 0.67476424389 0.67629016936
0.67751090974 0.67842646502 0.6793420203 0.68025757559 0.68086794578 0.68147831596 0.68208868615 0.68269905634 0.68330942653
0.68391979672 0.68453016691 0.6851405371 0.6851405371 0.684835352 0.68422498181 0.68300424144 0.68117313087 0.67903683521
0.67629016936 0.67293313332 0.66988128237 0.66652424634 0.66408276558 0.66225165501 0.66133609973 0.66164128482 0.6628620252
0.66499832086 0.66743980162 0.66988128237 0.67171239294 0.6738486886 0.67598498426 0.67751090974 0.67903683521 0.68025757559
0.68117313087 0.68208868615 0.68239387125 0.68300424144 0.68361461163 0.68391979672 0.684835352 0.68605609238 0.68788720295
0.69002349861 0.69185460918 0.69429608993 0.69673757069 0.69917905144 0.70009460673 0.70101016201 0.70345164277 0.70589312352
0.70772423409 0.71108127013 0.7184057124 0.72298348881 0.72634052485 0.72847682051 0.72969756089 0.72969756089 0.7290871907
0.72725608014 0.72511978447 0.72237311862 0.71932126768 0.71535386145 0.71108127013 0.70619830862 0.70070497692 0.69521164522
0.68941312842 0.68269905634 0.67567979917 0.66805017181 0.66042054445 0.65340128727 0.64699240029 0.64180425368 0.63783684745
0.6350901816 0.63295388594 0.63112277538 0.62929166481 0.62746055424 0.62593462877 0.6244087033 0.62318796292 0.62196722254
0.62105166726 0.62044129707 0.62044129707 0.62105166726 0.62166203745 0.62166203745 0.62013611197 0.61708426103 0.6134220399
0.60975981876 0.60701315291 0.60609759763 0.60518204235 0.60396130197 0.60304574668 0.6021301914 0.60182500631 0.6021301914
0.60335093178 0.60548722744 0.6079287082 0.61067537405 0.6134220399 0.61647389084 0.61952574179 0.62257759273 0.62501907349
0.62654499896 0.62746055424 0.62776573934 0.62715536915 0.62623981386 0.62532425858 0.62379833311 0.62288277782 0.62166203745
0.62044129707 0.6186101865 0.61647389084 0.61433759518 0.61281166971 0.61128574423 0.60975981876 0.6079287082 0.60579241253
0.60335093178 0.60090945102 0.59816278517 0.59541611932 0.59236426838 0.58931241743 0.58656575158 0.58320871554 0.5798516795
0.57618945837 0.57191686705 0.56764427572 0.56550798006 0.56489760987 -9.9999999907 -9.9999999907 -9.9999999907 -9.9999999907
-9.9999999907 -9.9999999907 -9.9999999907 -9.9999999907 0.63295388594 0.52644428797 0.52827539854 0.52980132401 0.53102206439
0.53193761967 0.53254798986 0.53285317495 0.53315836005 0.53285317495 0.53254798986 0.53224280477 0.53132724948 0.5304116942
0.52949613892 0.52888576873 0.52858058363 0.52827539854 0.52797021344 0.52797021344 0.52766502835 0.52735984325 0.52674947307
0.52552873269 0.52430799231 0.52247688174 0.52034058608 0.51820429042 0.51637317985 0.51454206929 0.51301614381 0.51149021834
0.51057466306 0.51026947796 0.51026947796 0.51026947796 0.51057466306 0.51057466306 0.51087984815 0.51118503325 0.51149021834
0.51179540344 0.51240577362 0.51332132891 0.51454206929 0.51606799476 0.51759392023 0.51881466061 0.52003540099 0.52156132646
0.52339243703 0.52552873269 0.52766502835 0.52980132401 0.53193761967 0.53407391533 0.53621021099 0.53865169175 0.54109317251
0.54353465326 0.54628131911 0.54902798496 0.55177465081 0.55452131666 0.55696279742 0.55970946327 0.56245612912 0.56520279497
0.56794946082 0.57100131176 0.57405316271 0.57741019875 0.58046204969 0.58320871554 0.58595538139 0.58931241743 0.59297463857
0.59694204479 0.60090945102 0.60487685725 0.60945463367 0.61433759518 0.61952574179 0.6244087033 0.6295968499 0.6350901816
0.6405835133 0.6463820301 0.65218054689 0.6576738786 0.6628620252 0.66774498671 0.67171239294 0.67506942898 0.67781609483
0.68025757559 0.68208868615 0.68361461163 0.684835352 0.68605609238 0.68697164766 0.68758201785 0.68849757314 0.68910794333
0.69002349861 0.69093905389 0.69185460918 0.69277016446 0.69338053465 0.69338053465 0.69338053465 0.69246497937 0.69124423899
0.68941312842 0.68697164766 0.68453016691 0.68178350106 0.6793420203 0.67720572464 0.67506942898 0.67293313332 0.67140720785
0.67049165256 0.67079683766 0.67201757804 0.67354350351 0.67537461407 0.67720572464 0.67903683521 0.68056276068 0.68208868615
0.68269905634 0.68391979672 0.68422498181 0.68422498181 0.68422498181 0.68391979672 0.68391979672 0.68453016691 0.68544572219
0.68727683276 0.68971831352 0.69246497937 0.69521164522 0.69795831107 0.70070497692 0.70284127258 0.70436719805 0.70589312352
0.7071138639 0.70925015956 0.71169164032 0.71932126768 0.72420422919 0.72817163542 0.73091830127 0.73244422674 0.73274941184
0.73244422674 0.73091830127 0.72878200561 0.72634052485 0.723593859 0.71993163787 0.71596423164 0.71138645522 0.70650349371
0.70101016201 0.69551683031 0.68941312842 0.68269905634 0.67506942898 0.66743980162 0.65981017426 0.65279091708 0.64668721519
0.64180425368 0.63844721764 0.63600573689 0.63417462632 0.63234351575 0.63051240519 0.62868129462 0.62715536915 0.62562944368
0.62501907349 0.62471388839 0.62501907349 0.62562944368 0.62623981386 0.62623981386 0.62532425858 0.62318796292 0.61983092688
0.61616870575 0.61250648461 0.60975981876 0.60853907838 0.6079287082 0.60701315291 0.60579241253 0.60487685725 0.60396130197
0.60396130197 0.60457167216 0.60640278272 0.60853907838 0.61128574423 0.61403241009 0.61708426103 0.62013611197 0.62288277782
0.62532425858 0.62685018405 0.62776573934 0.62807092443 0.62776573934 0.62685018405 0.62593462877 0.62471388839 0.62349314801
0.62257759273 0.62105166726 0.6189153716 0.61677907594 0.61494796537 0.6134220399 0.61189611442 0.61037018895 0.60853907838
0.60640278272 0.60396130197 0.60121463612 0.59846797027 0.59572130442 0.59327982366 0.59053315781 0.58778649196 0.58473464102
0.58107241988 0.57679982856 0.57222205214 0.5688650161 0.56581316516 0.56733909063 -9.9999999907 -9.9999999907 -9.9999999907
-9.9999999907 -9.9999999907 -9.9999999907 -9.9999999907 0.63203833066 0.63264870085 0.5194250308 0.52156132646 0.52339243703
0.5246131774 0.52583391778 0.52644428797 0.52705465816 0.52735984325 0.52735984325 0.52735984325 0.52705465816 0.52613910288
0.52552873269 0.5246131774 0.52369762212 0.52308725193 0.52247688174 0.52217169665 0.52186651155 0.52156132646 0.52125614136
0.52095095627 0.52003540099 0.51881466061 0.51728873514 0.51515243948 0.51301614381 0.51149021834 0.50996429287 0.50904873759
0.5081331823 0.50782799721 0.50782799721 0.5081331823 0.5081331823 0.5081331823 0.5081331823 0.5081331823 0.5084383674
0.50874355249 0.50874355249 0.50904873759 0.50965910777 0.51057466306 0.51179540344 0.51301614381 0.51423688419 0.51576280966
0.51698355004 0.51881466061 0.52064577118 0.52308725193 0.52522354759 0.52766502835 0.5301065091 0.53254798986 0.53498947062
0.53712576628 0.53956724703 0.54200872779 0.54445020854 0.54658650421 0.54902798496 0.55146946572 0.55360576138 0.55574205704
0.5578783527 0.55970946327 0.56184575893 0.56398205459 0.56642353535 0.5691702012 0.57222205214 0.57557908818 0.57863093913
0.58259834535 0.58687093668 0.59175389819 0.59633167461 0.60121463612 0.60640278272 0.61189611442 0.61769463122 0.62318796292
0.62929166481 0.63570055179 0.64210943878 0.64851832576 0.65492721274 0.66103091463 0.66682943143 0.67201757804 0.67659535445
0.68025757559 0.68330942653 0.68575090729 0.68819238804 0.68971831352 0.69124423899 0.69246497937 0.69338053465 0.69460127503
0.69551683031 0.69643238559 0.69765312597 0.69887386635 0.70009460673 0.70101016201 0.7016205322 0.70192571729 0.7016205322
0.70101016201 0.69978942163 0.69795831107 0.69551683031 0.69307534955 0.6906338688 0.68849757314 0.68666646257 0.684835352
0.68269905634 0.68086794578 0.6796472054 0.6793420203 0.6796472054 0.68056276068 0.68147831596 0.68269905634 0.68391979672
0.684835352 0.68575090729 0.68636127748 0.68636127748 0.68605609238 0.6851405371 0.68391979672 0.68300424144 0.68239387125
0.68330942653 0.6851405371 0.68819238804 0.69154942408 0.69521164522 0.69856868125 0.7016205322 0.70467238314 0.70680867881
0.70863978937 0.70986052975 0.71077608503 0.71230201051 0.71962645277 0.72542496957 0.72969756089 0.73274941184 0.7345805224
0.73549607769 0.73519089259 0.73427533731 0.73244422674 0.73030793108 0.72756126523 0.72420422919 0.72054200806 0.71626941673
0.71169164032 0.70650349371 0.70131534711 0.69551683031 0.68910794333 0.68208868615 0.67445905879 0.66652424634 0.65889461897
0.65218054689 0.6463820301 0.64210943878 0.63905758783 0.63692129217 0.6350901816 0.63325907104 0.63173314556 0.63020722009
0.6295968499 0.62929166481 0.629902035 0.63051240519 0.63112277538 0.63142796047 0.63051240519 0.62868129462 0.62593462877
0.62257759273 0.6189153716 0.61555833556 0.61250648461 0.61128574423 0.61037018895 0.60945463367 0.60853907838 0.6076235231
0.60670796782 0.60640278272 0.60670796782 0.6079287082 0.60975981876 0.61220129952 0.61494796537 0.61799981631 0.62074648216
0.62349314801 0.62562944368 0.62715536915 0.62807092443 0.62807092443 0.62776573934 0.62715536915 0.62623981386 0.62532425858
0.6244087033 0.62318796292 0.62166203745 0.61952574179 0.61769463122 0.61586352065 0.61494796537 0.61372722499 0.61220129952
0.61037018895 0.60823389329 0.60579241253 0.60335093178 0.60090945102 0.59846797027 0.59633167461 0.59389019385 0.591143528
0.58778649196 0.58351390064 0.57802056894 0.57283242233 0.57191686705 0.5636768695 -9.9999999907 -9.9999999907 -9.9999999907
-9.9999999907 -9.9999999907 -9.9999999907 -9.9999999907 -9.9999999907 0.63112277538 0.63264870085 0.51240577362 0.51484725438
0.51698355004 0.51850947551 0.51973021589 0.52064577118 0.52095095627 0.52156132646 0.52156132646 0.52156132646 0.52125614136
0.52095095627 0.52003540099 0.5191198457 0.51820429042 0.51759392023 0.51667836495 0.51637317985 0.51576280966 0.51545762457
0.51515243948 0.51454206929 0.5139316991 0.51271095872 0.51149021834 0.50965910777 0.50782799721 0.50660725683 0.50569170155
0.50538651645 0.50538651645 0.50569170155 0.50599688664 0.50599688664 0.50569170155 0.50569170155 0.50538651645 0.50538651645
0.50508133136 0.50508133136 0.50538651645 0.50538651645 0.50569170155 0.50630207174 0.50721762702 0.5081331823 0.50965910777
0.51087984815 0.51240577362 0.51423688419 0.51637317985 0.51881466061 0.52125614136 0.52400280721 0.52674947307 0.52919095382
0.53163243458 0.53346354514 0.5355998408 0.53773613647 0.53987243213 0.54200872779 0.54383983836 0.54567094892 0.54750205949
0.54902798496 0.55024872534 0.55146946572 0.552385021 0.55330057628 0.55482650176 0.55635242723 0.55879390799 0.56215094402
0.56672872044 0.57161168195 0.57618945837 0.5801568646 0.58503982611 0.59022797272 0.59633167461 0.60304574668 0.60945463367
0.61647389084 0.62288277782 0.62929166481 0.63661610708 0.64394054934 0.65126499161 0.65828424878 0.66469313577 0.67079683766
0.67629016936 0.68117313087 0.6851405371 0.68849757314 0.69124423899 0.69399090484 0.6958220154 0.69765312597 0.69887386635
0.70009460673 0.70131534711 0.70253608748 0.70375682786 0.70528275333 0.70680867881 0.70802941918 0.70925015956 0.70986052975
0.71047089994 0.71016571485 0.70955534466 0.70833460428 0.70680867881 0.70467238314 0.70223090239 0.69978942163 0.69734794088
0.69521164522 0.69307534955 0.69093905389 0.68880275823 0.68727683276 0.68666646257 0.68697164766 0.68727683276 0.68758201785
0.68819238804 0.68880275823 0.68910794333 0.68910794333 0.68849757314 0.68758201785 0.68544572219 0.68269905634 0.68056276068
0.67903683521 0.6796472054 0.68178350106 0.68544572219 0.69002349861 0.69429608993 0.69856868125 0.70253608748 0.70558793843
0.70833460428 0.71047089994 0.71169164032 0.7126071956 0.71504867636 0.71993163787 0.72634052485 0.73091830127 0.7345805224
0.73671681806 0.73763237335 0.73793755844 0.73702200316 0.73549607769 0.73366496712 0.73122348636 0.72817163542 0.72481459938
0.72084719315 0.71626941673 0.71138645522 0.70619830862 0.70070497692 0.69460127503 0.68819238804 0.68086794578 0.67293313332
0.66530350596 0.65797906369 0.6518753618 0.6463820301 0.64271980897 0.63997314312 0.63814203255 0.63661610708 0.6353953667
0.63447981142 0.63447981142 0.6350901816 0.63600573689 0.63661610708 0.63661610708 0.63570055179 0.63417462632 0.63142796047
0.62837610953 0.62501907349 0.62196722254 0.6189153716 0.61616870575 0.61433759518 0.6131168548 0.61220129952 0.61128574423
0.61037018895 0.60975981876 0.60914944857 0.60945463367 0.61006500386 0.61159092933 0.61372722499 0.61616870575 0.6189153716
0.62135685235 0.62379833311 0.62593462877 0.62715536915 0.62807092443 0.62837610953 0.62807092443 0.62746055424 0.62685018405
0.62593462877 0.62501907349 0.62379833311 0.62227240764 0.62044129707 0.6189153716 0.61830500141 0.61738944612 0.61647389084
0.61525315046 0.6134220399 0.61159092933 0.60975981876 0.6076235231 0.60579241253 0.60365611687 0.60151982121 0.59907834046
0.59602648951 0.59175389819 0.58626056649 0.57893612422 0.57222205214 0.57588427328 0.56520279497 0.58961760253 -9.9999999907
-9.9999999907 -9.9999999907 -9.9999999907 0.62532425858 0.62837610953 0.62868129462 0.63051240519 0.63203833066 0.50630207174
0.50874355249 0.51087984815 0.51271095872 0.5139316991 0.51515243948 0.51576280966 0.51606799476 0.51637317985 0.51606799476
0.51606799476 0.51545762457 0.51454206929 0.513626514 0.51271095872 0.51179540344 0.51118503325 0.51026947796 0.50965910777
0.50904873759 0.5084383674 0.50782799721 0.50721762702 0.50630207174 0.50538651645 0.50416577607 0.50325022079 0.5026398506
0.5026398506 0.50325022079 0.50355540588 0.50355540588 0.50355540588 0.50325022079 0.5029450357 0.5026398506 0.50233466551
0.50202948041 0.50172429532 0.50141911022 0.50111392513 0.50111392513 0.50111392513 0.50141911022 0.50233466551 0.50325022079
0.50477614626 0.50630207174 0.5081331823 0.51026947796 0.51271095872 0.51515243948 0.51789910533 0.52064577118 0.52369762212
0.52613910288 0.52827539854 0.5304116942 0.53224280477 0.53407391533 0.5359050259 0.53773613647 0.53926206194 0.54048280232
0.54170354269 0.54261909798 0.54292428307 0.54322946817 0.54322946817 0.54292428307 0.54261909798 0.54261909798 0.54292428307
0.54383983836 0.54811242968 0.55482650176 0.56245612912 0.56855983101 0.57283242233 0.57741019875 0.58320871554 0.59053315781
0.59816278517 0.60640278272 0.61464278027 0.62257759273 0.63020722009 0.63753166236 0.64516128972 0.65309610218 0.66103091463
0.6683553569 0.67506942898 0.68086794578 0.68575090729 0.69002349861 0.69368571974 0.69673757069 0.69978942163 0.70192571729
0.70375682786 0.70558793843 0.70680867881 0.70833460428 0.70986052975 0.71138645522 0.7129123807 0.71474349126 0.71626941673
0.71718497202 0.7181005273 0.7184057124 0.7181005273 0.71749015711 0.71657460183 0.71535386145 0.71352275088 0.71138645522